6
Lattice="10.0 0.0 0.0 0.0 10.0 0.0 0.0 0.0 10.0" Properties=species:S:1:pos:R:3:forces:R:3 energy=-152.6633235196629 pbc="T T T" dipole="-1.41810402 -0.13791688 0.580411346"
H 1.42203366 0.459411945 -0.13831059 0.00499080579 -0.00124616951 0.00616623497
H 3.2999568 -0.975336119 1.34189524 -0.0053750731 -0.00316285979 0.00677102962
O 3.19964071 0.0746205624 -0.157843655 0.00198508385 0.00577978183 -0.0123256903
H -3.65487652 1.39016491 0.691975528 0.00367714037 -0.00605661686 -0.00288866814
H -4.15151723 -1.19331574 -0.416566953 0.000924985602 0.00248731409 0.00128174533
O -2.81409029 -0.0347361875 -0.0270304979 -0.00620294251 0.00219855024 0.000995348528
6
Lattice="10.0 0.0 0.0 0.0 10.0 0.0 0.0 0.0 10.0" Properties=species:S:1:pos:R:3:forces:R:3 energy=-152.6645787427524 pbc="T T T" dipole="-1.09085044 -0.161778214 0.158065192"
H 0.937753213 -0.0711414447 0.0102623624 -0.0257942836 -9.17898583e-05 3.04743114e-05
H 3.54773504 -1.24147491 -0.706454238 0.00173845089 0.00160978943 0.00118757797
O 2.80186554 0.18548497 0.124974358 0.0224345712 -0.000869225863 -0.00125920913
H -3.45932157 -0.686411788 1.3048323 -0.00186382112 0.00652711748 -0.000551507611
H -3.01968599 1.59740955 -0.221449121 0.00102445254 -0.0160448607 0.00617371647
O -2.55267563 -0.135282646 -0.173373271 0.00246063008 0.0088689695 -0.00558105201
6
Lattice="10.0 0.0 0.0 0.0 10.0 0.0 0.0 0.0 10.0" Properties=species:S:1:pos:R:3:forces:R:3 energy=-152.6614277703891 pbc="T T T" dipole="1.21950959 0.347487727 0.30702475"
H -1.19633658 -0.0830313296 0.198233029 0.0364879343 -0.00352029749 0.00382735158
H -3.93526631 0.953571815 1.0722011 -0.0197207873 0.0158731077 0.0166517385
O -3.06510829 -0.134096194 -0.180035497 -0.0190871043 -0.0125370544 -0.0198332224
H 3.87224338 -1.42366058 0.193078143 0.00203565004 -0.00961138724 0.00266440336
H 3.7326497 1.43028719 -0.657012298 0.00929285852 0.0214448127 -0.00898821154
O 2.75594701 0.0244503079 0.0792230005 -0.00900855127 -0.0116491813 0.00567794053
