6
Lattice="10.0 0.0 0.0 0.0 10.0 0.0 0.0 0.0 10.0" Properties=species:S:1:pos:R:3:forces:R:3 energy=-34.4442126734 pbc="T T T" dipole="-1.54919236 0.48920126 -2.99883785"
H	-3.2781413645	-9.3013297785	-1.7713203961	0.0111013364	-0.0165433823	0.0035621943
H	-2.6581866226	-10.7595691107	-1.6032402514	-0.0022058616	0.0198710151	0.0019404533
O	-2.5221344502	-9.8089522471	-1.3654878050	-0.0077697997	-0.0037680833	-0.0113637879
H	-4.8637298772	-7.7352438124	-3.1938926694	-0.0003205487	-0.0000445755	-0.0054495574
H	-4.8952200779	-9.0437549080	-4.1060192489	-0.0014589135	0.0179418822	0.0363126347
O	-4.9562663918	-8.6997256617	-3.1489018560	0.0027582899	-0.0177823296	-0.0290462101
6
Lattice="10.0 0.0 0.0 0.0 10.0 0.0 0.0 0.0 10.0" Properties=species:S:1:pos:R:3:forces:R:3 energy=-34.4431339811 pbc="T T T" dipole="-1.14313094 0.73687358 -2.66267341"
H	-3.2289781566	-9.5610940231	-1.7552486145	-0.0206931959	0.0118708439	-0.0102703859
H	-2.5094031728	-10.8644870025	-1.7272038431	0.0007388577	-0.0176462529	-0.0055473484
O	-2.4604674705	-9.9781740014	-1.3842674222	0.0165627285	0.0050075711	0.0140317577
H	-4.8194681028	-7.7563671729	-2.9644498569	-0.0011448647	-0.0046432629	-0.0066518079
H	-4.8971433600	-8.8136284838	-4.0808909334	0.0076409578	-0.0021739082	-0.0526567098
O	-5.0072772721	-8.6888886100	-3.1742963854	-0.0026536359	0.0041635289	0.0641857682
6
Lattice="10.0 0.0 0.0 0.0 10.0 0.0 0.0 0.0 10.0" Properties=species:S:1:pos:R:3:forces:R:3 energy=-34.4425873067 pbc="T T T" dipole="-0.98303610 0.65018782 -2.74272664"
H	-3.2574986234	-9.9079071694	-2.0077980596	0.0245806739	-0.0032421327	0.0191959655
H	-2.2267282900	-11.0373648118	-1.7594979276	-0.0009137683	0.0107604832	0.0053944635
O	-2.4456343423	-10.1335619817	-1.4358877900	-0.0267773793	-0.0060360087	-0.0255108479
H	-4.9881887928	-7.8037901796	-2.7760455727	0.0017397479	0.0035480757	-0.0091640079
H	-4.8455546551	-8.7019104406	-4.1314279445	-0.0053886591	0.0099229794	0.0395142413
O	-4.9936365276	-8.7057345235	-3.1269435821	0.0037671489	-0.0146885429	-0.0330966216
