192
Lattice="12.4171 0.0 0.0 0.0 12.4171 0.0 0.0 0.0 12.4171" Properties=species:S:1:pos:R:3:forces:R:3 energy=-1103.2957529002 pbc="T T T" dipole="27.88699986 0.02394117 -26.30633472"
H	10.8198663452	0.9882194979	3.4877033133	-0.0083157919	0.0056570301	0.0098688775
H	11.5152417831	-0.0460452461	2.6462747591	0.0037907871	-0.0074996322	0.0003656092
H	3.8094370570	6.4153229484	7.9289807087	-0.0028010839	0.0085756246	0.0048262046
H	4.6950001945	6.6362419076	9.1941488640	0.0155139071	-0.0098620928	0.0085516376
H	1.6529840620	11.9008229247	3.8731172644	-0.0085848109	0.0016663953	-0.0081963428
H	0.7119387993	-1.7288066867	3.7415289526	-0.0096637539	-0.0254920169	0.0137082123
H	7.1297828964	4.1403223450	2.0515288663	-0.0023299286	-0.0019001925	0.0041091079
H	7.1396295631	4.9436639339	3.4314970394	-0.0066061517	-0.0104823650	-0.0027893555
H	0.0954723792	11.6753499551	10.8149295586	0.0036173907	0.0040192528	-0.0073433490
H	0.2346156863	0.2973782126	9.5991332117	0.0021866000	-0.0034945914	-0.0148093139
H	6.8824355452	2.8974628908	10.4914015807	0.0069162324	-0.0085187368	0.0016925507
H	5.4572764523	3.2373556023	11.1163416418	-0.0019282869	-0.0029275862	-0.0009304200
H	4.8763437916	8.3288983593	8.0575798159	0.0038181426	0.0041053400	0.0019345285
H	6.2266355340	9.1622741657	7.5611048979	-0.0056951292	-0.0120267959	0.0010088550
H	4.8639050635	8.3577389739	4.4192805972	-0.0026204971	0.0230426013	-0.0006945422
H	4.7487845014	6.9830580275	3.6547122832	0.0003796006	0.0009420000	0.0111048570
H	9.6172087012	10.9973159494	7.4919474384	0.0094660699	0.0017362966	-0.0066639424
H	8.1671548335	11.6060796891	6.9885971887	0.0126980985	-0.0129631096	0.0115405059
H	6.2269261943	5.0321517087	8.0985552221	-0.0083932382	-0.0038532952	-0.0146703201
H	5.5014827551	4.7719690938	6.6232516070	0.0008252579	0.0018386231	0.0111226896
H	12.8737896874	5.8917272271	1.6946085162	-0.0001563682	0.0005475309	0.0118337305
H	13.2642527131	5.5772496996	3.2276232730	-0.0072536126	0.0074530948	-0.0064255045
H	12.2828216410	13.7353947799	11.3496304617	-0.0090947555	0.0009388583	0.0043315051
H	10.8947586084	1.5743924560	12.2873306623	0.0225659698	0.0156038472	-0.0221845503
H	4.5706398702	10.5324722925	5.1561566135	0.0026200951	0.0016178352	-0.0023426069
H	4.2565874134	10.3155053291	3.5754222098	0.0153321727	0.0000240962	0.0114875249
H	7.7489577228	8.3594327618	5.9128492369	-0.0014016458	-0.0011931558	-0.0060652308
H	8.2884937454	9.4790293574	6.8969357842	-0.0089081244	-0.0050010570	0.0069335167
H	11.1584466218	7.4703499155	2.4921883755	-0.0124651732	0.0041713056	-0.0042443949
H	10.4616336325	8.7793668883	2.9028089566	-0.0086276663	0.0066391502	0.0174472621
H	7.1129103182	11.3697969351	2.7439281132	0.0027631723	0.0044693127	0.0081179724
H	6.2284042690	11.3479723963	3.9882819358	-0.0072920062	-0.0029102579	-0.0052848130
H	3.5575812887	4.5077267748	-0.5253784943	0.0044527042	-0.0302716828	-0.0155276030
H	4.3629711277	5.8708038467	12.1570686771	-0.0133567691	-0.0117576445	0.0003629733
H	7.9260446459	6.6163183000	0.4606500082	-0.0211312220	-0.0005374242	-0.0101383296
H	9.1035613284	6.7702352198	1.2916045285	0.0231222461	0.0197800383	0.0350882393
H	8.0792219278	11.4096199261	9.2114018690	0.0049013581	-0.0008291058	0.0184831844
H	8.2158231807	-1.0576764870	10.9384524554	0.0052580025	-0.0001896710	-0.0130782912
H	7.0428818558	3.2945668903	7.2242248967	0.0122350297	-0.0045326945	0.0056251058
H	8.0880114956	2.4417394361	8.2292092162	-0.0116742372	0.0091871845	-0.0240242892
H	1.5768982042	4.2549386308	4.3963445439	0.0067276542	0.0103774887	0.0006334287
H	2.6408010977	5.1298124133	3.7386005984	0.0191817653	0.0042063445	-0.0102720621
H	3.9397250268	-0.3943790677	10.6915015373	-0.0075298751	0.0058035237	0.0071777672
H	2.3711985024	-0.0074868429	10.6920845024	-0.0189227155	-0.0019981842	-0.0041215041
H	4.7631011784	10.6761327403	7.3848630863	0.0072148745	0.0005755003	-0.0036848180
H	5.5210620213	-0.4908333419	6.6758041337	0.0127845046	0.0018579844	0.0011536237
H	0.5125521251	7.5769438175	7.3796325026	-0.0022279878	-0.0091654555	0.0044572220
H	0.9495904388	8.3369166965	8.8024849562	0.0024169248	-0.0055706541	-0.0141812304
H	3.9212839173	1.1535884961	1.7433743924	0.0019842323	0.0033732354	0.0039758957
H	3.2425613673	0.5619477825	0.4257714593	-0.0053123390	-0.0018627817	0.0139760363
H	7.7854993005	3.7865870961	0.1148401844	-0.0113806472	-0.0013762944	-0.0131168357
H	8.8546555403	4.1458358502	1.1805342640	0.0005498619	-0.0079517823	-0.0008427082
H	4.1728428981	6.4836874582	5.8351955737	0.0162672446	0.0254494263	-0.0218322815
H	3.1439566877	5.3771835929	5.7562338775	-0.0121400721	-0.0023883609	-0.0045845737
H	3.5827521515	5.4278531118	1.6124433291	0.0209286706	-0.0017705299	0.0166618463
H	4.9609029864	4.9513811471	2.4376030259	-0.0247850800	0.0189121573	0.0047272600
H	6.1520472501	7.0702610429	-1.2759572367	0.0002738349	0.0024210400	-0.0120579534
H	5.6854946258	7.7551502819	0.0526059866	-0.0007820732	-0.0029964849	-0.0059289395
H	6.4741274855	5.0978503679	9.9698749202	-0.0053896943	-0.0089422210	0.0107340122
H	7.2492202210	6.2908828029	9.3896242846	0.0255936412	0.0151923042	-0.0135356634
H	-0.1438103999	6.1237761515	5.6520864238	-0.0024920301	-0.0024617219	-0.0144383407
H	-1.4238768259	5.8866651361	6.6034144567	0.0063852428	-0.0092561826	-0.0073843669
H	2.8646112757	8.1819129766	9.8485958121	0.0118347140	-0.0125410593	-0.0078333690
H	1.8000400198	8.0550353164	10.9712486612	0.0006783241	-0.0034222600	0.0022440760
H	11.1282555647	4.8996003660	2.8546388358	-0.0064864597	0.0035480936	-0.0030649453
H	9.6322195932	4.9981662002	3.4876939639	0.0022584867	0.0002608264	-0.0001670689
H	-0.2586775879	9.8410361947	-0.4249608735	-0.0030344754	0.0013070368	-0.0039058149
H	11.3549854832	9.6604110042	10.5719496993	0.0003276025	-0.0118121221	-0.0006484402
H	10.9550650911	7.5084448161	10.1313096021	-0.0003838581	0.0120332146	-0.0031719349
H	-1.0625414049	8.2829424657	8.8027373816	-0.0067923347	-0.0014898054	0.0141862939
H	11.1439582210	2.4989804244	6.2027284042	0.0034815116	0.0047775966	-0.0203693751
H	10.0053777432	2.0950068965	7.0775666808	-0.0067030853	-0.0026491566	0.0042802292
H	8.5620300848	5.7606306718	5.3205032898	0.0008950739	-0.0038945209	-0.0150854729
H	8.1030371740	6.6509877353	3.8894285180	0.0141130463	-0.0249312261	0.0139196038
H	6.7593873862	9.7292421392	1.1900475473	0.0127144546	0.0154786171	0.0142742914
H	8.2727845053	10.2463569785	1.2431171832	0.0112021803	0.0052767757	-0.0153743840
H	1.2051935858	0.5425186366	7.5597964064	-0.0329067811	0.0018525266	0.0123482292
H	-0.3158884906	1.2115768782	7.4601640783	0.0053253423	-0.0146327722	0.0126912540
H	1.8427710111	6.1315770808	-0.1324146896	0.0184773962	-0.0023961466	0.0049407940
H	0.3913907563	6.4645528862	-0.4113131834	-0.0047337883	0.0061127041	0.0072726112
H	4.3958289855	9.7162793514	0.7356828086	-0.0406286182	0.0139599191	0.0284040319
H	5.2229138736	9.8909912062	-0.5559563440	-0.0007334351	-0.0022547774	0.0073979054
H	0.6543960534	4.9898752244	7.7170732756	-0.0143383683	0.0081221048	-0.0103766165
H	0.2217075273	4.2214792706	9.0801576944	0.0155757671	0.0061022717	-0.0152281001
H	5.1409153926	10.3409242921	9.5345835621	0.0049519615	0.0132155348	0.0194681323
H	6.2239506030	11.2499720363	10.2792222710	-0.0053065058	0.0036242110	-0.0018895721
H	11.1817212415	5.2132261534	-1.6886795003	0.0019339735	-0.0040451383	-0.0017422972
H	10.2852742039	6.0901165158	-0.7655178467	0.0058691054	0.0013510956	0.0093448950
H	6.6421094825	7.7069473395	3.4129643192	-0.0018855864	0.0022028687	-0.0029578214
H	7.6266247264	8.6395273133	2.5240756126	-0.0010455913	-0.0165948078	0.0117967677
H	7.4763334033	1.0349745246	6.3627229686	-0.0029335962	0.0076123808	0.0063768855
H	7.1984964214	0.1470306379	5.1134030942	0.0038805340	-0.0070856470	-0.0118905089
H	4.0829264263	3.6456476879	8.1439416854	0.0032552544	0.0124059443	-0.0056446319
H	2.4563358745	3.9407971881	8.4648166624	0.0001993117	-0.0030654337	-0.0004166433
H	-1.6869030103	9.9331397471	5.1438093486	-0.0250719442	0.0055739845	-0.0321490462
H	10.1224900811	10.6853659077	3.8491860333	0.0015467147	0.0043026110	0.0074445964
H	9.2576231130	2.1621612175	10.4632437454	-0.0293040540	-0.0112179193	-0.0157235764
H	8.2294454019	0.9133829771	10.1236697277	0.0012527094	-0.0011192358	0.0011927855
H	9.1530404975	5.9250210217	7.3808522790	0.0090394830	-0.0180483845	-0.0078628875
H	9.1315507158	4.3888405467	7.0182687794	-0.0041971092	-0.0152339389	0.0000646009
H	3.3241377242	0.2850552683	7.1224358763	0.0004409731	0.0111269104	0.0061382190
H	3.1730646443	1.7744586540	7.7835783179	-0.0104096314	-0.0004935675	-0.0031150497
H	9.9748352205	0.9335268749	1.6275940263	0.0029403239	-0.0103075826	0.0096132572
H	8.8828538291	1.7493884305	0.7919183831	0.0149281998	-0.0037942460	-0.0034031294
H	1.1161903325	2.5452307123	2.4441868569	-0.0149335850	0.0143031800	0.0068958714
H	1.7226411526	1.9180464851	3.7187271484	-0.0032558365	0.0036254271	0.0052832548
H	13.3381694593	8.5253712978	0.8719233160	0.0089501859	-0.0142517894	-0.0043067262
H	-0.3362540531	-3.3559898621	1.4984748799	-0.0162631132	-0.0051867809	0.0066790965
H	11.1150487589	3.1492690924	8.8116185915	-0.0040242392	0.0023287515	-0.0002518842
H	11.3303096651	2.7946444259	10.3338869073	0.0053806734	-0.0081469078	0.0193106719
H	3.7398714392	1.0350377936	4.0768004168	0.0080967326	0.0039464734	-0.0110769373
H	2.8929066389	1.1110537454	5.3541854444	-0.0053259189	-0.0014287390	0.0048352508
H	3.6237784368	2.9876310166	-2.4323358445	-0.0057064049	-0.0007257757	0.0039665889
H	3.6152068208	1.9262153409	-1.1660077234	0.0050528291	0.0243280982	-0.0194769649
H	-0.7404519396	11.6568124344	7.1356152298	0.0038952616	-0.0188090055	-0.0045295782
H	-0.7488065216	10.0972524312	7.4292579364	0.0041418968	0.0014086885	-0.0065028187
H	5.6414130529	2.6027084012	2.8870465302	0.0021199493	-0.0030691657	0.0029000884
H	5.8252859915	1.0135665899	2.8789682165	0.0154155708	-0.0095679373	0.0057380388
H	8.3326821446	7.6422916130	7.8456455455	-0.0063019921	0.0195244358	-0.0090966418
H	9.2497391518	7.4126406843	9.1405016619	0.0121703841	0.0122108447	-0.0050775562
H	12.1767899799	2.3487817857	4.2398772206	-0.0388878313	0.0085765782	-0.0039686575
H	10.8100839451	3.2199900659	3.9986814908	-0.0027891629	-0.0006089139	-0.0048023212
H	3.4455992520	11.5256272833	1.7046442926	-0.0066220239	-0.0162692357	0.0118908694
H	2.3716810672	10.5407384501	2.2535178884	0.0138172265	-0.0016060453	-0.0075840046
H	1.7005049286	2.6949331201	0.5783628637	-0.0240592918	0.0162588016	-0.0045511224
H	0.1518020742	3.0733381858	0.3171693862	0.0003699942	-0.0141342978	-0.0100998550
H	9.2263297813	11.9827369184	0.2334292460	0.0068508099	0.0029646439	-0.0002818035
H	9.9925485542	10.7349127078	-0.4899206779	-0.0056574542	0.0063835360	0.0084902296
O	10.6063100935	0.2100375704	2.9007446718	0.0064825079	-0.0005088971	0.0034694801
O	3.9871990756	7.0465290683	8.6951536680	-0.0166105571	0.0074404425	-0.0139285976
O	0.9220314122	-0.9116886329	3.3208162245	0.0162067094	0.0217601513	-0.0086737355
O	6.5462103973	4.4119482436	2.8102901828	-0.0062152351	0.0001918689	0.0042734699
O	0.5839736782	0.0802380359	10.4890321206	-0.0055283167	-0.0013995146	0.0197864569
O	6.4245766399	3.4968546908	11.1075259059	0.0036102767	0.0174533249	0.0030295004
O	5.3409669690	9.2198911638	8.0007074829	-0.0045922128	0.0028987453	0.0056432105
O	5.1130162188	7.4254434639	4.4784152233	0.0026090406	-0.0270464850	-0.0109077112
O	8.6470558502	10.9747941618	7.6650548173	-0.0217291381	0.0064059776	-0.0155171709
O	5.9503692461	4.3430101345	7.3913040559	-0.0009063293	-0.0047430673	-0.0048500968
O	12.5153322584	5.8443045510	2.6244570486	0.0019905194	0.0075233382	-0.0053921048
O	11.6515936686	2.0407974039	11.6931350391	-0.0164266013	-0.0282809787	0.0182784927
O	4.9517723407	10.1541384574	4.3215073249	-0.0217605670	-0.0029252799	-0.0107917359
O	7.7515145664	8.6145244127	6.8480781326	0.0026296003	0.0212824554	-0.0125599997
O	10.4278591387	8.0932792639	2.2142803460	0.0207783621	-0.0174589965	-0.0107336114
O	6.8140163851	11.9735958488	3.4945423174	-0.0021903009	-0.0042737850	-0.0056726080
O	15.9156670358	5.3634297359	12.3062929929	0.0093842881	0.0372251812	0.0147211538
O	8.8510277523	6.3555212142	0.4887357598	-0.0044338146	-0.0216585182	-0.0349856306
O	7.7574784359	-0.6591901675	10.1174260278	-0.0062611767	-0.0001550657	-0.0045176857
O	7.8939000144	2.7101447865	7.2561561244	0.0137343516	-0.0157183031	0.0220324739
O	14.3968362562	5.1755574604	4.4607484443	-0.0162878871	-0.0245634012	0.0036487463
O	3.2232779689	0.1807199592	11.1125058283	0.0275099909	0.0007639153	0.0104013827
O	4.6636906173	11.4928951689	6.8226453925	-0.0210109908	0.0006851403	-0.0078814898
O	0.3723391415	8.3359979798	7.9687736134	-0.0041483919	0.0249977583	0.0170500227
O	3.1277075219	0.6559725526	1.4308275197	0.0052340178	0.0007539413	-0.0248674763
O	8.1963713219	3.4487022029	0.9236721753	0.0115600272	0.0031483327	0.0097236443
O	3.7938371810	5.7865716303	6.3595608211	-0.0066726887	-0.0180385901	0.0195414030
O	4.0544854270	5.4717520196	2.5199344016	0.0060237778	-0.0125486537	-0.0106519533
O	5.9712121405	6.8858161413	-0.3515389150	-0.0016719341	0.0036978182	0.0154392336
O	6.3838196220	5.8688606541	9.3594464805	-0.0194562110	-0.0086518065	0.0199798282
O	-0.4462673521	6.0830897555	6.5591853528	0.0073614192	0.0014087455	0.0118799604
O	2.0242608453	8.5354175012	10.1520325463	-0.0173624958	0.0155363368	-0.0005554629
O	10.2506797850	4.4307385241	2.9454023665	-0.0001456368	-0.0077239966	0.0006620696
O	-0.7877964453	10.2954030504	-1.1460985252	-0.0035626431	0.0119716841	0.0119967132
O	10.6918516104	8.3235289904	9.5974571803	0.0122648814	-0.0139868482	-0.0034514186
O	10.9581478748	2.2756671443	7.1447951557	-0.0060293378	0.0099755586	0.0134163149
O	8.3530143632	5.7164835710	4.3390583815	-0.0048254331	0.0268553517	-0.0126861440
O	7.5104011516	10.0518289332	1.8167735469	-0.0269800212	-0.0186698944	-0.0070045644
O	0.1962292329	0.4208169829	7.8630759517	0.0238187114	0.0138883950	-0.0213953152
O	1.1613984172	6.7804159661	0.1359499691	-0.0128763824	-0.0020158113	-0.0128754373
O	5.1893537765	9.4157431475	0.3323322461	0.0448498419	-0.0107673591	-0.0361201864
O	0.9976829333	4.5435019572	8.4981303253	0.0017294732	-0.0121290355	0.0231776124
O	5.2542768309	10.9594567344	10.3386572515	-0.0030412957	-0.0250146191	-0.0201835500
O	11.2121369676	6.0064446423	-1.1116505678	-0.0096213150	-0.0017641481	-0.0067084195
O	7.4721822449	7.6846596088	2.8818140211	-0.0026094113	0.0098920694	-0.0021759695
O	7.1684083735	0.1361786124	6.0939684903	0.0047946800	0.0046433329	0.0094474260
O	3.2677684884	3.3314719222	8.5702623821	0.0037810958	-0.0116545284	-0.0078939717
O	10.1128293635	9.8220118352	4.3143917128	0.0257073515	0.0067602124	0.0300206550
O	8.3896840086	1.8976434196	10.0098548207	0.0228643856	0.0176116683	0.0083565872
O	9.4865071943	5.2255505465	6.6821672105	-0.0141392746	0.0375322723	0.0224852198
O	2.7352603365	1.1021504391	7.1864469570	0.0153391713	-0.0186719736	-0.0110547738
O	9.6013582402	1.0405596952	0.7095742938	-0.0189553698	0.0182917363	-0.0072286501
O	1.0074630543	2.5740042846	3.4415529513	0.0317149274	-0.0107473688	-0.0088405695
O	12.9229624412	-3.0590967640	1.1298069309	0.0038236102	0.0165858302	-0.0091744799
O	11.1878259508	3.5414870845	9.7157910349	-0.0009308295	0.0186364678	-0.0238834558
O	2.8399420135	0.8538876296	4.4013233229	-0.0002058711	-0.0057275337	0.0114055927
O	3.8312888014	2.8908633684	-1.4487405908	0.0032011617	-0.0230335400	0.0268373509
O	-1.1599674043	10.7620898189	6.8313617966	-0.0031244042	0.0102617529	0.0078170679
O	5.1749414184	1.7330892892	2.9134685626	-0.0187004640	0.0135811022	0.0011301031
O	8.6437376948	6.9902993645	8.5000700902	-0.0023153187	-0.0375168279	0.0171661110
O	11.1363787527	2.4077159388	4.4882244940	0.0279100872	-0.0144626218	0.0108718270
O	3.3473992191	10.5376518620	2.0190365719	-0.0104643212	0.0140919390	0.0028973300
O	0.9752763152	3.3671282937	0.7572531584	0.0353522659	-0.0039649838	0.0140908252
O	9.1135462730	11.0478103699	-0.1032535810	-0.0002949277	-0.0191161812	-0.0061392477
192
Lattice="12.4171 0.0 0.0 0.0 12.4171 0.0 0.0 0.0 12.4171" Properties=species:S:1:pos:R:3:forces:R:3 energy=-1103.283165878 pbc="T T T" dipole="27.59277001 0.50605001 -27.40326109"
H	10.7749066906	1.0542715243	3.4904986163	-0.0056257858	-0.0171952204	-0.0045490413
H	11.5294224011	-0.0376946716	2.6207344988	-0.0102366771	0.0012022881	0.0085587609
H	3.7883132483	6.4044562605	7.9476912375	0.0008130739	0.0105098566	0.0090126315
H	4.7094110279	6.6336485752	9.2536836445	-0.0122628419	0.0039775989	-0.0150371046
H	1.6524344356	11.8718440310	3.8788144342	-0.0086203100	-0.0000557726	-0.0064212836
H	0.6833489287	-1.7972603305	3.7220592275	0.0036350941	0.0178259937	-0.0059051701
H	7.1343710655	4.1779976821	2.0347319930	-0.0065297715	-0.0020511843	0.0120775792
H	7.1240340965	4.9377311514	3.4659830141	-0.0147442730	-0.0209012741	-0.0147004094
H	0.1255270294	11.7119961397	10.7865699787	-0.0110839911	-0.0182817736	-0.0008927638
H	0.2771528721	0.3406597840	9.5461859709	0.0074108478	-0.0131363497	0.0118082886
H	6.9363216076	2.8761311142	10.4743830873	-0.0122079973	0.0119755858	0.0241324135
H	5.4582135241	3.2698658350	11.0862646178	0.0007246553	-0.0076373839	-0.0020601064
H	4.9488680112	8.3447527857	8.0841790785	-0.0127916429	-0.0086056572	0.0057096957
H	6.2234455122	9.0854378016	7.5644232110	-0.0042631003	0.0001272132	0.0019295821
H	4.8854914999	8.3194123100	4.3998472890	-0.0064117677	0.0496840569	0.0051211231
H	4.7519682979	7.0503776242	3.5985227455	0.0064101116	-0.0047875801	0.0268339128
H	9.6360029960	10.9926368067	7.4972586059	-0.0006205215	-0.0002936078	-0.0043126908
H	8.2127996379	11.6236223980	7.0046743506	0.0046827530	-0.0095552944	0.0047037290
H	6.1995692244	5.0538762554	8.0919969537	-0.0060107293	-0.0032270663	-0.0105224351
H	5.4522620722	4.8018724890	6.6419500745	0.0026936678	-0.0021077140	0.0117865489
H	12.8291471574	5.8589964790	1.6906548603	0.0105794208	0.0001261553	-0.0037695869
H	13.2008891501	5.5400084628	3.2261831761	0.0175432647	-0.0001942354	0.0062975528
H	12.2936805185	13.7401738660	11.3709148906	-0.0122459946	-0.0048724371	0.0047670008
H	10.8863502544	1.6612522790	12.2910608067	0.0127900954	-0.0037509771	-0.0102194448
H	4.5822621664	10.5309258185	5.1488303326	-0.0016075207	0.0042130039	0.0016702009
H	4.2743550956	10.3770633211	3.5447493923	0.0159934607	-0.0047395312	0.0176248187
H	7.7476144035	8.3678376965	5.9123863350	-0.0000311774	0.0004095793	-0.0085206460
H	8.2627664597	9.4845516214	6.9412149349	-0.0071929617	-0.0023952753	0.0039540003
H	11.1078773958	7.4750239753	2.5067419355	0.0120190050	-0.0135866277	0.0071224050
H	10.4593239654	8.8455199901	2.8874402141	-0.0066217671	-0.0200935826	-0.0023039701
H	7.1008710989	11.3698189601	2.7504723311	0.0039580737	0.0087166110	0.0085193684
H	6.2046501406	11.3404448132	3.9543405836	-0.0086972315	-0.0006226600	-0.0005018996
H	3.6925130048	4.4813282134	-0.5266796932	-0.0092241502	-0.0054930356	-0.0013292492
H	4.3432367101	5.8564932015	12.1599494735	0.0035657386	0.0064971452	0.0003112506
H	7.9467810863	6.6493294172	0.4591732816	-0.0362881114	0.0028760746	-0.0152750687
H	9.0639630502	6.7741465350	1.3601298912	0.0130651145	-0.0046929065	-0.0118580262
H	8.0324084444	11.4257792591	9.2077161525	0.0110922027	-0.0044477704	0.0171156910
H	8.2189051885	-1.0149239398	10.9261419173	0.0124660218	-0.0113728130	-0.0010541438
H	6.9956676270	3.2694231473	7.2471604863	0.0273359211	-0.0092147019	0.0006825704
H	8.0582054648	2.4442642832	8.1714011202	-0.0000447484	-0.0051313163	0.0238875403
H	1.5776882942	4.2531896721	4.3948925628	0.0071875343	0.0099506151	0.0012537117
H	2.6279612167	5.1339563547	3.6855447479	0.0031692052	0.0052548808	0.0106493513
H	3.9031615667	-0.3477801440	10.7515220913	0.0407676753	-0.0311325213	-0.0211106359
H	2.3806531191	-0.0192680959	10.6678006116	-0.0195640371	-0.0020590245	-0.0037410074
H	4.7349272457	10.6710721561	7.3483510373	0.0120865655	-0.0249989822	0.0143932607
H	5.5628395856	-0.5631932536	6.6275751056	0.0121301297	0.0014308504	0.0031778932
H	0.4787793892	7.5647731672	7.3618355441	-0.0024840609	0.0013070879	0.0132755262
H	0.9499554012	8.3176260617	8.8462795334	-0.0066279996	-0.0053258516	-0.0314197281
H	3.9876055387	1.1368162083	1.7247871804	-0.0236708612	-0.0096963769	-0.0000258811
H	3.2282971404	0.5894647108	0.4384599488	-0.0064880998	-0.0053056724	0.0052835835
H	7.7455832246	3.7893432350	0.1203235575	-0.0018967550	-0.0100588520	0.0048542278
H	8.8773188877	4.1744623019	1.1438835396	-0.0116943282	-0.0195354976	-0.0024790816
H	4.1798972580	6.4868603786	5.8410851685	0.0160207941	0.0259989959	-0.0222370226
H	3.1456135788	5.3956346496	5.7432107819	-0.0196345007	-0.0071166587	-0.0127461943
H	3.5878385338	5.4356836672	1.6538175690	0.0145509716	-0.0029837532	0.0006000740
H	4.9411633199	5.0437226872	2.4510599967	0.0113680792	-0.0067877407	-0.0003683045
H	6.1492494222	7.1038774915	-1.2730102038	0.0001424149	0.0029846514	-0.0090247118
H	5.6930799132	7.7258017558	0.0809914134	-0.0047677485	0.0118365421	-0.0018916600
H	6.3882171510	5.0833218093	9.9384401197	0.0015319513	-0.0128003248	0.0172799086
H	7.2967151444	6.2643795668	9.3871466492	0.0000679839	0.0018861320	-0.0120007676
H	-0.2154088647	6.0644555641	5.6216145344	0.0030982652	-0.0012830829	-0.0124974360
H	-1.4368882858	5.8442370641	6.6180281494	0.0294122530	-0.0020499333	-0.0023248018
H	2.8450603351	8.1679812057	9.7956547776	0.0122095662	-0.0111184714	-0.0107439063
H	1.8288216952	8.0205794813	10.9167035300	-0.0059148721	-0.0132476558	0.0204588490
H	11.1351362591	4.8985576820	2.8510222802	-0.0061647064	-0.0001988316	-0.0050484359
H	9.6944996180	5.0040175122	3.5172810717	-0.0040521660	-0.0019949902	-0.0017789438
H	-0.2576692526	9.8476871417	-0.4626712123	0.0082778250	-0.0062611516	0.0127316691
H	11.4116625657	9.6422221710	10.5606319703	-0.0044559087	-0.0131190679	-0.0067227078
H	10.9999017232	7.5507298447	10.1635632623	-0.0075751054	0.0154669955	-0.0086235797
H	-1.0568063828	8.2492053035	8.7937046606	-0.0078794997	0.0037151940	0.0151155462
H	11.1888042117	2.4959216326	6.1982296850	-0.0062722748	0.0032588267	-0.0190003575
H	9.9836859596	2.0410065971	7.0923426578	0.0164361234	0.0049493759	-0.0026102054
H	8.5482278271	5.7580922347	5.2807048912	0.0063177893	0.0022262196	0.0173539154
H	8.1127925979	6.5700188176	3.8636773396	0.0072793466	0.0063013266	0.0080989516
H	6.7633909167	9.7327959581	1.2440343598	-0.0082896743	0.0060899213	-0.0077126928
H	8.2722087251	10.2540368637	1.2554703519	-0.0020662511	0.0010850652	-0.0084185263
H	1.1082733462	0.5535342913	7.4999543265	0.0114366327	-0.0012322937	0.0033717728
H	-0.3005343421	1.2251000173	7.4677988127	-0.0058913732	-0.0095973993	0.0115622132
H	1.8735717910	6.1243375365	-0.0746038765	0.0036554666	0.0044862685	0.0024985174
H	0.3979358066	6.5067036629	-0.4287195684	-0.0050228269	-0.0005341137	0.0035052632
H	4.3100364019	9.6910528648	0.7611828961	0.0088043434	-0.0005783786	0.0036127264
H	5.1927985741	9.9232164340	-0.5448573225	-0.0002346105	-0.0063297980	0.0115056466
H	0.6893534213	5.0172573143	7.7150591952	-0.0104354067	0.0066442369	-0.0069466741
H	0.2303151581	4.2898179822	9.0515573789	0.0068750489	-0.0011125404	-0.0049930271
H	5.1600893763	10.3958736493	9.5667920761	-0.0076112309	-0.0141093922	-0.0121992304
H	6.2221076960	11.2244493720	10.2296257539	-0.0009659686	0.0092939806	0.0076955179
H	11.2006003859	5.1429948889	-1.6273393606	-0.0002919261	0.0167146916	0.0076853913
H	10.3274983424	6.1192769748	-0.7482491095	-0.0120039124	0.0014528189	0.0136420445
H	6.6517058998	7.6868439982	3.3916408702	-0.0046328124	-0.0011776246	0.0010112582
H	7.5939529390	8.6070680843	2.5648638330	0.0072767264	0.0100383317	-0.0012648724
H	7.4393699098	1.0272982344	6.3955497717	-0.0016344650	0.0111939897	0.0033781639
H	7.1911876255	0.1405374274	5.1238227934	0.0045956554	-0.0043203531	-0.0200859964
H	4.0456961661	3.6439686905	8.0726803862	0.0284775594	0.0188214912	-0.0164575890
H	2.5105356237	3.9343002388	8.4528646117	-0.0170713843	0.0085658229	-0.0021608099
H	-1.7030482370	9.9560892758	5.0809723540	0.0108142116	0.0082232816	0.0166586964
H	10.1457580893	10.7109853106	3.8338007561	-0.0002817203	-0.0142147591	0.0162872154
H	9.2066806001	2.2175836623	10.4133806133	0.0110895311	-0.0050376638	0.0062163292
H	8.2111136625	0.8834183712	10.0945078847	0.0088783422	0.0093425257	0.0061522008
H	9.1632322234	5.9063552829	7.3447508831	0.0011551852	-0.0008483073	0.0094920304
H	9.1037247926	4.3707614439	7.0463974304	0.0061283615	0.0062257069	-0.0094226065
H	3.3655160718	0.2802837826	7.0923622095	-0.0069297857	0.0231833645	0.0109738510
H	3.1318693343	1.7894687266	7.7546696924	0.0016086185	0.0081617333	0.0067476346
H	9.9156522349	0.9026133341	1.6530287610	0.0064122082	-0.0090668130	0.0143216732
H	8.8766500371	1.7579717436	0.7487105984	0.0228134086	-0.0126689708	0.0012082459
H	1.0636050817	2.5538299694	2.4954165426	-0.0097885434	0.0134409009	-0.0423599485
H	1.7009486300	1.8860612176	3.6762455895	0.0046699651	-0.0022332893	0.0110014935
H	13.3978379680	8.5232257826	0.8290159482	-0.0059353876	0.0078236634	0.0040849140
H	-0.3202171166	-3.3985907249	1.4824559274	-0.0080763884	-0.0040141181	0.0024776704
H	11.0865618270	3.1758821511	8.7877992447	-0.0015398734	0.0031694954	0.0059123470
H	11.2994246796	2.7490185379	10.3523955250	0.0034501101	0.0191280095	-0.0037887442
H	3.7367677933	1.0868293473	4.0467277594	-0.0071151008	0.0000131412	0.0017977891
H	2.8585503853	1.1028205178	5.4038254785	0.0003514389	-0.0050879749	-0.0190422191
H	3.5460410301	2.9653761971	-2.4004426501	-0.0023275986	0.0057175802	-0.0127361911
H	3.5873350337	1.9085072939	-1.1907518761	0.0096087124	0.0312599028	-0.0159551145
H	-0.6906724884	11.7232655651	7.1196731582	-0.0109987212	-0.0491302743	-0.0089037707
H	-0.7704078267	10.1086394272	7.4695812061	0.0024932243	0.0046668540	-0.0109016612
H	5.6315405011	2.5731605898	2.9089927744	0.0039984387	0.0143924920	0.0013599895
H	5.8697555708	1.0359139052	2.9036358405	0.0014483727	-0.0067273554	0.0063895012
H	8.3270499448	7.6449583665	7.7821383108	0.0030795562	-0.0028023903	0.0166960411
H	9.2425758955	7.4337517098	9.1081107467	0.0253930016	0.0206201782	0.0101217972
H	12.1306879589	2.3106285608	4.1769512777	-0.0228527472	0.0113819203	-0.0012459914
H	10.8040803199	3.2016326357	4.0214347972	-0.0087241973	0.0160129810	-0.0149602974
H	3.4109315087	11.5666938989	1.7134528423	-0.0068136380	-0.0238627602	0.0127215742
H	2.4212231266	10.4990143081	2.2661741237	-0.0229828507	-0.0026681487	0.0008695075
H	1.6689264916	2.7327825896	0.5971895717	0.0068824204	-0.0065888452	-0.0084793787
H	0.1680264769	3.0383240826	0.2574495731	0.0100978683	-0.0046338740	0.0002516340
H	9.2143852388	11.9774993944	0.2062363200	0.0064221836	0.0057301752	0.0034283073
H	9.9888161733	10.7689040083	-0.4960038860	0.0026263111	-0.0010642573	0.0041478749
O	10.6076948187	0.2182369641	2.9008571371	0.0175062493	0.0115419970	0.0129327547
O	3.9819055217	7.0489366073	8.7024664197	0.0073612809	-0.0081229460	0.0070799403
O	0.9111599998	-0.9164779832	3.3242891476	0.0079496488	-0.0174860149	0.0085114200
O	6.5334700155	4.3945716436	2.8129538677	0.0101916356	0.0139943989	0.0105065873
O	0.5836718159	0.0985492862	10.4843388614	0.0028737714	0.0267128615	-0.0129210830
O	6.4303101168	3.4972300665	11.1136697256	0.0203671824	-0.0017002157	-0.0182981697
O	5.3504049796	9.2357213759	8.0120982467	0.0090494677	0.0066049530	-0.0031025278
O	5.1198286846	7.4095845363	4.4851608783	-0.0001597430	-0.0462777767	-0.0318026652
O	8.6436849340	10.9769636114	7.6646136908	-0.0031181182	0.0022143124	-0.0113000502
O	5.9356913970	4.3596727161	7.3895104478	-0.0054973707	-0.0053621039	-0.0091488111
O	12.5197645479	5.8336296920	2.6125791754	-0.0337046801	0.0081616870	-0.0046109851
O	11.6484191480	2.0309933662	11.7091523916	-0.0042299029	-0.0030034319	0.0004506047
O	4.9473166604	10.1597906711	4.3144313173	-0.0185673952	-0.0005398663	-0.0222014436
O	7.7422125969	8.6129261097	6.8477106698	0.0022953193	0.0171758074	-0.0075370780
O	10.4327459656	8.0905453339	2.2111606251	-0.0046126655	0.0273876669	-0.0004290013
O	6.8029113872	11.9870984255	3.5012696108	0.0032074997	-0.0105649786	-0.0119932656
O	15.9204001210	5.3623325400	12.2931556888	0.0028448953	-0.0036877453	0.0018258146
O	8.8442547360	6.3444072694	0.4880881022	0.0220949273	0.0014292148	0.0164007667
O	7.7494716411	-0.6598429424	10.1249303874	-0.0169959776	0.0149621410	-0.0201111741
O	7.9023338638	2.6953238513	7.2571098498	-0.0179770322	0.0044265520	-0.0210073260
O	14.3860911049	5.1774064798	4.4531172351	-0.0027742532	-0.0259081945	-0.0178936825
O	3.2153301447	0.1630338677	11.1219839528	-0.0195392180	0.0454037573	0.0326801338
O	4.6894421641	11.4768320406	6.8337460980	-0.0305717734	0.0345101235	-0.0292754843
O	0.3704446957	8.3370141271	7.9690554028	0.0061532290	0.0137613541	0.0252501144
O	3.1246775965	0.6476312715	1.4323928412	0.0331028664	0.0174932539	-0.0081050729
O	8.1973121576	3.4480621438	0.9402206414	0.0135691882	0.0234892126	-0.0113753292
O	3.7845545851	5.7885678789	6.3489203419	0.0009399882	-0.0145761718	0.0303762060
O	4.0585511630	5.4650313802	2.5302113507	-0.0260793240	0.0107635485	0.0092064073
O	5.9850808130	6.8950934191	-0.3485078914	-0.0027427806	-0.0137586783	0.0065016871
O	6.3764524914	5.8714279515	9.3618155272	0.0004516169	0.0112298301	0.0122615621
O	-0.4287459205	6.0992693509	6.5558831478	-0.0222634801	-0.0076554686	0.0090126293
O	2.0238798020	8.5371059412	10.1382755762	-0.0114315760	0.0244606763	-0.0169850765
O	10.2585326976	4.4186044592	2.9475845382	0.0076748852	0.0011854046	0.0024289235
O	-0.7734924308	10.2881218029	-1.1625416561	-0.0061055765	0.0246262096	-0.0025109177
O	10.6973553261	8.3410515163	9.5947837772	0.0182656179	-0.0216365945	-0.0018228861
O	10.9501595477	2.2806542437	7.1293870453	-0.0179589368	0.0021798941	0.0177105505
O	8.3296670821	5.7187424969	4.3447323396	-0.0036668494	-0.0071491128	-0.0321866903
O	7.4888916627	10.0493332396	1.8265358213	0.0035812459	-0.0026545699	0.0062667481
O	0.1899479478	0.4152896990	7.8405657152	-0.0113653840	0.0101315099	-0.0149119295
O	1.1619980290	6.7869176027	0.1322892499	0.0036990861	-0.0037949400	-0.0106483297